<?xml version="1.0" encoding="UTF-8"?>

<!-- generated on 2024-01-05 15:50:03 by Eclipse SUMO netedit Version 1.19.0
<configuration xmlns:xsi="http://www.w3.org/2001/XMLSchema-instance" xsi:noNamespaceSchemaLocation="http://sumo.dlr.de/xsd/neteditConfiguration.xsd">

    <input>
        <sumocfg-file value="C:\Users\Usuario\Documents\Master\IA\City\Fuzzy\Sensores Terminados\tutorial.sumocfg"/>
        <additional-files value="C:\Users\Usuario\Documents\Master\IA\City\Fuzzy\Sensores Terminados\tutorial.add.xml"/>
        <route-files value="C:\Users\Usuario\Documents\Master\IA\City\Fuzzy\Sensores Terminados\tutorial.rou.xml"/>
        <meandata-files value="C:\Users\Usuario\Documents\Master\IA\City\Fuzzy\Sensores Terminados\tutorial.med.add.xml"/>
        <sumo-net-file value="C:\Users\Usuario\Documents\Master\IA\City\Fuzzy\Sensores Terminados\tutorial.net.xml"/>
    </input>

    <output>
        <output-file value="C:\Users\Usuario\Documents\Master\IA\City\Fuzzy\Sensores Terminados\tutorial.net.xml"/>
    </output>

    <processing>
        <geometry.min-radius.fix.railways value="false"/>
        <geometry.max-grade.fix value="false"/>
        <offset.disable-normalization value="true"/>
        <lefthand value="0"/>
    </processing>

    <junctions>
        <no-internal-links value="false"/>
        <no-turnarounds value="true"/>
        <junctions.corner-detail value="5"/>
        <junctions.limit-turn-speed value="5.50"/>
        <rectangular-lane-cut value="0"/>
    </junctions>

    <pedestrian>
        <walkingareas value="0"/>
    </pedestrian>

    <netedit>
        <new-network value="false"/>
    </netedit>

</configuration>
-->

<net version="1.16" junctionCornerDetail="5" limitTurnSpeed="5.50" xmlns:xsi="http://www.w3.org/2001/XMLSchema-instance" xsi:noNamespaceSchemaLocation="http://sumo.dlr.de/xsd/net_file.xsd">

    <location netOffset="0.00,0.00" convBoundary="-200.00,-150.00,407.27,300.00" origBoundary="-10000000000.00,-10000000000.00,10000000000.00,10000000000.00" projParameter="!"/>

    <type id="edgeType_0" priority="-1" numLanes="2" speed="13.89" disallow="tram rail_urban rail rail_electric rail_fast ship">
        <laneType index="0" disallow="pedestrian tram rail_urban rail rail_electric rail_fast ship" width="2.00"/>
        <laneType index="1" disallow="pedestrian tram rail_urban rail rail_electric rail_fast ship" width="5.00"/>
    </type>

    <edge id=":J1_0" function="internal">
        <lane id=":J1_0_0" index="0" disallow="pedestrian" speed="11.79" length="31.45" width="5.00" shape="-38.00,-42.50 -46.53,-43.72 -52.62,-47.38 -56.28,-53.47 -57.50,-62.00"/>
        <lane id=":J1_0_1" index="1" disallow="pedestrian" speed="10.25" length="23.38" width="5.00" shape="-38.00,-47.50 -44.34,-48.41 -48.88,-51.12 -51.59,-55.66 -52.50,-62.00"/>
    </edge>
    <edge id=":J1_2" function="internal">
        <lane id=":J1_2_0" index="0" disallow="pedestrian" speed="6.11" length="7.26" width="5.00" shape="-42.50,-62.00 -42.22,-60.03 -41.38,-58.62 -39.97,-57.78 -38.00,-57.50"/>
        <lane id=":J1_2_1" index="1" disallow="pedestrian" speed="8.44" length="15.32" width="5.00" shape="-47.50,-62.00 -46.91,-57.84 -45.12,-54.88 -42.16,-53.09 -38.00,-52.50"/>
    </edge>
    <edge id=":J1_w0" function="walkingarea">
        <lane id=":J1_w0_0" index="0" allow="pedestrian" speed="2.78" length="32.53" width="2.00" shape="-60.00,-62.00 -62.00,-62.00 -60.92,-56.75 -58.00,-51.33 -53.75,-46.25 -48.67,-42.00 -43.25,-39.08 -38.00,-38.00 -38.00,-40.00 -44.72,-40.61 -50.22,-42.44 -54.50,-45.50 -57.56,-49.78 -59.39,-55.28"/>
    </edge>
    <edge id=":J1_w1" function="walkingarea">
        <lane id=":J1_w1_0" index="0" allow="pedestrian" speed="2.78" length="1.41" width="2.00" shape="-38.00,-60.00 -38.00,-62.00 -40.00,-62.00 -39.94,-61.39 -39.78,-60.89 -39.50,-60.50 -39.11,-60.22 -38.61,-60.06"/>
    </edge>
    <edge id=":J12_0" function="internal">
        <lane id=":J12_0_0" index="0" disallow="pedestrian tram rail_urban rail rail_electric rail_fast ship" speed="8.44" length="15.32" width="5.00" shape="202.50,93.00 201.91,97.16 200.12,100.12 197.16,101.91 193.00,102.50"/>
    </edge>
    <edge id=":J12_1" function="internal">
        <lane id=":J12_1_0" index="0" disallow="pedestrian tram rail_urban rail rail_electric rail_fast ship" speed="6.11" length="7.26" width="5.00" shape="193.00,97.50 194.97,97.22 196.38,96.38 197.22,94.97 197.50,93.00"/>
    </edge>
    <edge id=":J12_w0" function="walkingarea">
        <lane id=":J12_w0_0" index="0" allow="pedestrian" speed="2.78" length="18.38" width="2.00" shape="193.00,105.00 193.00,107.00 197.47,106.65 201.03,105.57 203.71,103.71 205.57,101.03 206.65,97.47 207.00,93.00 205.00,93.00 204.67,96.67 203.67,99.67 202.00,102.00 199.67,103.67 196.67,104.67"/>
    </edge>
    <edge id=":J12_w1" function="walkingarea">
        <lane id=":J12_w1_0" index="0" allow="pedestrian" speed="2.78" length="1.41" width="2.00" shape="195.00,93.00 193.00,93.00 193.00,95.00 193.61,94.94 194.11,94.78 194.50,94.50 194.78,94.11 194.94,93.61"/>
    </edge>
    <edge id=":J13_0" function="internal">
        <lane id=":J13_0_0" index="0" disallow="pedestrian tram rail_urban rail rail_electric rail_fast ship" speed="7.14" length="6.26" width="5.00" shape="147.50,109.00 147.09,106.16 145.88,104.12 145.00,103.60"/>
    </edge>
    <edge id=":J13_1" function="internal">
        <lane id=":J13_1_0" index="0" disallow="pedestrian tram rail_urban rail rail_electric rail_fast ship" speed="9.21" length="14.51" width="5.00" shape="147.50,109.00 148.22,103.97 150.38,100.38 153.97,98.22 155.00,98.07"/>
    </edge>
    <edge id=":J13_6" function="internal">
        <lane id=":J13_6_0" index="0" disallow="pedestrian tram rail_urban rail rail_electric rail_fast ship" speed="7.14" length="4.22" width="5.00" shape="145.00,103.60 143.84,102.91 141.00,102.50"/>
    </edge>
    <edge id=":J13_7" function="internal">
        <lane id=":J13_7_0" index="0" disallow="pedestrian tram rail_urban rail rail_electric rail_fast ship" speed="9.21" length="4.04" width="5.00" shape="155.00,98.07 159.00,97.50"/>
    </edge>
    <edge id=":J13_2" function="internal">
        <lane id=":J13_2_0" index="0" disallow="pedestrian tram rail_urban rail rail_electric rail_fast ship" speed="7.14" length="6.26" width="5.00" shape="159.00,102.50 156.16,102.91 154.12,104.12 153.60,105.00"/>
    </edge>
    <edge id=":J13_3" function="internal">
        <lane id=":J13_3_0" index="0" disallow="pedestrian tram rail_urban rail rail_electric rail_fast ship" speed="13.89" length="18.00" width="5.00" shape="159.00,102.50 141.00,102.50"/>
    </edge>
    <edge id=":J13_8" function="internal">
        <lane id=":J13_8_0" index="0" disallow="pedestrian tram rail_urban rail rail_electric rail_fast ship" speed="7.14" length="4.22" width="5.00" shape="153.60,105.00 152.91,106.16 152.50,109.00"/>
    </edge>
    <edge id=":J13_4" function="internal">
        <lane id=":J13_4_0" index="0" disallow="pedestrian tram rail_urban rail rail_electric rail_fast ship" speed="13.89" length="18.00" width="5.00" shape="141.00,97.50 159.00,97.50"/>
    </edge>
    <edge id=":J13_5" function="internal">
        <lane id=":J13_5_0" index="0" disallow="pedestrian tram rail_urban rail rail_electric rail_fast ship" speed="9.21" length="6.68" width="5.00" shape="141.00,97.50 146.03,98.22 147.40,99.04"/>
    </edge>
    <edge id=":J13_9" function="internal">
        <lane id=":J13_9_0" index="0" disallow="pedestrian tram rail_urban rail rail_electric rail_fast ship" speed="9.21" length="11.87" width="5.00" shape="147.40,99.04 149.62,100.38 151.78,103.97 152.50,109.00"/>
    </edge>
    <edge id=":J13_c0" function="crossing" crossingEdges="E23 -E23">
        <lane id=":J13_c0_0" index="0" allow="pedestrian" speed="2.78" length="10.00" width="4.00" shape="155.00,107.00 145.00,107.00"/>
    </edge>
    <edge id=":J13_c1" function="crossing" crossingEdges="E22 -E22">
        <lane id=":J13_c1_0" index="0" allow="pedestrian" speed="2.78" length="10.00" width="4.00" shape="157.00,95.00 157.00,105.00"/>
    </edge>
    <edge id=":J13_c2" function="crossing" crossingEdges="-E21 E21">
        <lane id=":J13_c2_0" index="0" allow="pedestrian" speed="2.78" length="10.00" width="4.00" shape="143.00,105.00 143.00,95.00"/>
    </edge>
    <edge id=":J13_w0" function="walkingarea">
        <lane id=":J13_w0_0" index="0" allow="pedestrian" speed="2.78" length="3.30" width="4.00" shape="141.00,105.00 141.00,107.00 143.00,109.00 145.00,109.00 144.89,107.78 144.56,106.78 144.00,106.00 143.22,105.44 142.22,105.11"/>
    </edge>
    <edge id=":J13_w1" function="walkingarea">
        <lane id=":J13_w1_0" index="0" allow="pedestrian" speed="2.78" length="3.30" width="4.00" shape="155.00,109.00 157.00,109.00 159.00,107.00 159.00,105.00 157.78,105.11 156.78,105.44 156.00,106.00 155.44,106.78 155.11,107.78"/>
    </edge>
    <edge id=":J13_w2" function="walkingarea">
        <lane id=":J13_w2_0" index="0" allow="pedestrian" speed="2.78" length="11.42" width="4.00" shape="155.00,95.00 159.00,95.00 159.00,93.00 141.00,93.00 141.00,95.00 145.00,95.00"/>
    </edge>
    <edge id=":J14_0" function="internal">
        <lane id=":J14_0_0" index="0" disallow="pedestrian tram rail_urban rail rail_electric rail_fast ship" speed="13.89" length="18.00" width="5.00" shape="159.00,207.50 141.00,207.50"/>
        <lane id=":J14_0_1" index="1" disallow="pedestrian tram rail_urban rail rail_electric rail_fast ship" speed="13.89" length="18.00" width="5.00" shape="159.00,202.50 141.00,202.50"/>
    </edge>
    <edge id=":J14_2" function="internal">
        <lane id=":J14_2_0" index="0" disallow="pedestrian tram rail_urban rail rail_electric rail_fast ship" speed="10.12" length="5.87" width="5.00" shape="159.00,202.50 153.97,201.47 153.41,200.99"/>
    </edge>
    <edge id=":J14_8" function="internal">
        <lane id=":J14_8_0" index="0" disallow="pedestrian tram rail_urban rail rail_electric rail_fast ship" speed="10.12" length="16.85" width="5.00" shape="153.41,200.99 150.38,198.38 148.22,193.22 147.50,186.00"/>
    </edge>
    <edge id=":J14_3" function="internal">
        <lane id=":J14_3_0" index="0" disallow="pedestrian tram rail_urban rail rail_electric rail_fast ship" speed="7.14" length="6.26" width="5.00" shape="152.50,186.00 152.91,188.84 154.12,190.88 155.00,191.40"/>
    </edge>
    <edge id=":J14_4" function="internal">
        <lane id=":J14_4_0" index="0" disallow="pedestrian tram rail_urban rail rail_electric rail_fast ship" speed="10.12" length="18.64" width="5.00" shape="152.50,186.00 151.78,193.22 149.62,198.38 146.03,201.47 145.00,201.68"/>
    </edge>
    <edge id=":J14_9" function="internal">
        <lane id=":J14_9_0" index="0" disallow="pedestrian tram rail_urban rail rail_electric rail_fast ship" speed="7.14" length="4.22" width="5.00" shape="155.00,191.40 156.16,192.09 159.00,192.50"/>
    </edge>
    <edge id=":J14_10" function="internal">
        <lane id=":J14_10_0" index="0" disallow="pedestrian tram rail_urban rail rail_electric rail_fast ship" speed="10.12" length="4.08" width="5.00" shape="145.00,201.68 141.00,202.50"/>
    </edge>
    <edge id=":J14_5" function="internal">
        <lane id=":J14_5_0" index="0" disallow="pedestrian tram rail_urban rail rail_electric rail_fast ship" speed="7.14" length="6.26" width="5.00" shape="141.00,192.50 143.84,192.09 145.88,190.88 146.40,190.00"/>
    </edge>
    <edge id=":J14_6" function="internal">
        <lane id=":J14_6_0" index="0" disallow="pedestrian tram rail_urban rail rail_electric rail_fast ship" speed="13.89" length="18.00" width="5.00" shape="141.00,192.50 159.00,192.50"/>
        <lane id=":J14_6_1" index="1" disallow="pedestrian tram rail_urban rail rail_electric rail_fast ship" speed="13.89" length="18.00" width="5.00" shape="141.00,197.50 159.00,197.50"/>
    </edge>
    <edge id=":J14_11" function="internal">
        <lane id=":J14_11_0" index="0" disallow="pedestrian tram rail_urban rail rail_electric rail_fast ship" speed="7.14" length="4.22" width="5.00" shape="146.40,190.00 147.09,188.84 147.50,186.00"/>
    </edge>
    <edge id=":J14_c0" function="crossing" crossingEdges="E24 -E24">
        <lane id=":J14_c0_0" index="0" allow="pedestrian" speed="2.78" length="20.00" width="4.00" shape="157.00,190.00 157.00,210.00"/>
    </edge>
    <edge id=":J14_c1" function="crossing" crossingEdges="-E23 E23">
        <lane id=":J14_c1_0" index="0" allow="pedestrian" speed="2.78" length="10.00" width="4.00" shape="145.00,188.00 155.00,188.00"/>
    </edge>
    <edge id=":J14_c2" function="crossing" crossingEdges="E6 -E6">
        <lane id=":J14_c2_0" index="0" allow="pedestrian" speed="2.78" length="20.00" width="4.00" shape="143.00,210.00 143.00,190.00"/>
    </edge>
    <edge id=":J14_w0" function="walkingarea">
        <lane id=":J14_w0_0" index="0" allow="pedestrian" speed="2.78" length="11.42" width="4.00" shape="145.00,210.00 141.00,210.00 141.00,212.00 159.00,212.00 159.00,210.00 155.00,210.00"/>
    </edge>
    <edge id=":J14_w1" function="walkingarea">
        <lane id=":J14_w1_0" index="0" allow="pedestrian" speed="2.78" length="3.30" width="4.00" shape="159.00,190.00 159.00,188.00 157.00,186.00 155.00,186.00 155.11,187.22 155.44,188.22 156.00,189.00 156.78,189.56 157.78,189.89"/>
    </edge>
    <edge id=":J14_w2" function="walkingarea">
        <lane id=":J14_w2_0" index="0" allow="pedestrian" speed="2.78" length="3.30" width="4.00" shape="145.00,186.00 143.00,186.00 141.00,188.00 141.00,190.00 142.22,189.89 143.22,189.56 144.00,189.00 144.56,188.22 144.89,187.22"/>
    </edge>
    <edge id=":J15_0" function="internal">
        <lane id=":J15_0_0" index="0" disallow="pedestrian tram rail_urban rail rail_electric rail_fast ship" speed="7.14" length="6.26" width="5.00" shape="292.50,214.00 292.09,211.16 290.88,209.12 290.00,208.60"/>
    </edge>
    <edge id=":J15_1" function="internal">
        <lane id=":J15_1_0" index="0" disallow="pedestrian tram rail_urban rail rail_electric rail_fast ship" speed="13.89" length="28.00" width="5.00" shape="292.50,214.00 292.50,186.00"/>
        <lane id=":J15_1_1" index="1" disallow="pedestrian tram rail_urban rail rail_electric rail_fast ship" speed="13.89" length="28.00" width="5.00" shape="297.50,214.00 297.50,186.00"/>
    </edge>
    <edge id=":J15_8" function="internal">
        <lane id=":J15_8_0" index="0" disallow="pedestrian tram rail_urban rail rail_electric rail_fast ship" speed="7.14" length="4.22" width="5.00" shape="290.00,208.60 288.84,207.91 286.00,207.50"/>
    </edge>
    <edge id=":J15_3" function="internal">
        <lane id=":J15_3_0" index="0" disallow="pedestrian tram rail_urban rail rail_electric rail_fast ship" speed="13.89" length="28.00" width="5.00" shape="307.50,186.00 307.50,214.00"/>
        <lane id=":J15_3_1" index="1" disallow="pedestrian tram rail_urban rail rail_electric rail_fast ship" speed="13.89" length="28.00" width="5.00" shape="302.50,186.00 302.50,214.00"/>
    </edge>
    <edge id=":J15_5" function="internal">
        <lane id=":J15_5_0" index="0" disallow="pedestrian tram rail_urban rail rail_electric rail_fast ship" speed="10.89" length="8.28" width="5.00" shape="302.50,186.00 301.47,193.22 300.96,194.07"/>
    </edge>
    <edge id=":J15_9" function="internal">
        <lane id=":J15_9_0" index="0" disallow="pedestrian tram rail_urban rail rail_electric rail_fast ship" speed="10.89" length="18.33" width="5.00" shape="300.96,194.07 298.38,198.38 293.22,201.47 286.00,202.50"/>
    </edge>
    <edge id=":J15_6" function="internal">
        <lane id=":J15_6_0" index="0" disallow="pedestrian tram rail_urban rail rail_electric rail_fast ship" speed="7.14" length="6.26" width="5.00" shape="286.00,192.50 288.84,192.09 290.88,190.88 291.40,190.00"/>
    </edge>
    <edge id=":J15_7" function="internal">
        <lane id=":J15_7_0" index="0" disallow="pedestrian tram rail_urban rail rail_electric rail_fast ship" speed="10.89" length="22.57" width="5.00" shape="286.00,197.50 293.22,198.53 298.38,201.62 301.47,206.78 301.93,210.00"/>
    </edge>
    <edge id=":J15_10" function="internal">
        <lane id=":J15_10_0" index="0" disallow="pedestrian tram rail_urban rail rail_electric rail_fast ship" speed="7.14" length="4.22" width="5.00" shape="291.40,190.00 292.09,188.84 292.50,186.00"/>
    </edge>
    <edge id=":J15_11" function="internal">
        <lane id=":J15_11_0" index="0" disallow="pedestrian tram rail_urban rail rail_electric rail_fast ship" speed="10.89" length="4.04" width="5.00" shape="301.93,210.00 302.50,214.00"/>
    </edge>
    <edge id=":J15_c0" function="crossing" crossingEdges="E28 -E28">
        <lane id=":J15_c0_0" index="0" allow="pedestrian" speed="2.78" length="20.00" width="4.00" shape="310.00,212.00 290.00,212.00"/>
    </edge>
    <edge id=":J15_c1" function="crossing" crossingEdges="-E25 E25">
        <lane id=":J15_c1_0" index="0" allow="pedestrian" speed="2.78" length="20.00" width="4.00" shape="290.00,188.00 310.00,188.00"/>
    </edge>
    <edge id=":J15_c2" function="crossing" crossingEdges="-E24 E24">
        <lane id=":J15_c2_0" index="0" allow="pedestrian" speed="2.78" length="20.00" width="4.00" shape="288.00,210.00 288.00,190.00"/>
    </edge>
    <edge id=":J15_w0" function="walkingarea">
        <lane id=":J15_w0_0" index="0" allow="pedestrian" speed="2.78" length="3.30" width="4.00" shape="286.00,210.00 286.00,212.00 288.00,214.00 290.00,214.00 289.89,212.78 289.56,211.78 289.00,211.00 288.22,210.44 287.22,210.11"/>
    </edge>
    <edge id=":J15_w1" function="walkingarea">
        <lane id=":J15_w1_0" index="0" allow="pedestrian" speed="2.78" length="18.09" width="4.00" shape="310.00,210.00 310.00,214.00 312.00,214.00 312.00,186.00 310.00,186.00 310.00,190.00"/>
    </edge>
    <edge id=":J15_w2" function="walkingarea">
        <lane id=":J15_w2_0" index="0" allow="pedestrian" speed="2.78" length="3.30" width="4.00" shape="290.00,186.00 288.00,186.00 286.00,188.00 286.00,190.00 287.22,189.89 288.22,189.56 289.00,189.00 289.56,188.22 289.89,187.22"/>
    </edge>
    <edge id=":J16_0" function="internal">
        <lane id=":J16_0_0" index="0" disallow="pedestrian tram rail_urban rail rail_electric rail_fast ship" speed="6.11" length="7.26" width="5.00" shape="292.50,-38.00 292.22,-39.97 291.38,-41.37 289.97,-42.22 288.00,-42.50"/>
        <lane id=":J16_0_1" index="1" disallow="pedestrian tram rail_urban rail rail_electric rail_fast ship" speed="8.44" length="15.32" width="5.00" shape="297.50,-38.00 296.91,-42.16 295.12,-45.12 292.16,-46.91 288.00,-47.50"/>
    </edge>
    <edge id=":J16_2" function="internal">
        <lane id=":J16_2_0" index="0" disallow="pedestrian tram rail_urban rail rail_electric rail_fast ship" speed="11.79" length="31.45" width="5.00" shape="288.00,-57.50 296.53,-56.28 302.62,-52.62 306.28,-46.53 307.50,-38.00"/>
        <lane id=":J16_2_1" index="1" disallow="pedestrian tram rail_urban rail rail_electric rail_fast ship" speed="10.25" length="23.38" width="5.00" shape="288.00,-52.50 294.34,-51.59 298.88,-48.88 301.59,-44.34 302.50,-38.00"/>
    </edge>
    <edge id=":J16_w0" function="walkingarea">
        <lane id=":J16_w0_0" index="0" allow="pedestrian" speed="2.78" length="1.41" width="2.00" shape="288.00,-40.00 288.00,-38.00 290.00,-38.00 289.94,-38.61 289.78,-39.11 289.50,-39.50 289.11,-39.78 288.61,-39.94"/>
    </edge>
    <edge id=":J16_w1" function="walkingarea">
        <lane id=":J16_w1_0" index="0" allow="pedestrian" speed="2.78" length="32.53" width="2.00" shape="310.00,-38.00 312.00,-38.00 310.92,-43.25 308.00,-48.67 303.75,-53.75 298.67,-58.00 293.25,-60.92 288.00,-62.00 288.00,-60.00 294.72,-59.39 300.22,-57.56 304.50,-54.50 307.56,-50.22 309.39,-44.72"/>
    </edge>
    <edge id=":J17_w0" function="walkingarea">
        <lane id=":J17_w0_0" index="0" allow="pedestrian" speed="2.78" length="22.00" width="2.00" shape="290.00,300.00 288.00,300.00 312.00,300.00 310.00,300.00"/>
    </edge>
    <edge id=":J18_w0" function="walkingarea">
        <lane id=":J18_w0_0" index="0" allow="pedestrian" speed="2.78" length="22.00" width="2.00" shape="-200.00,40.00 -200.00,38.00 -200.00,62.00 -200.00,60.00"/>
    </edge>
    <edge id=":J19_0" function="internal">
        <lane id=":J19_0_0" index="0" disallow="pedestrian tram rail_urban rail rail_electric rail_fast ship" speed="13.89" length="22.82" width="5.00" shape="-61.00,207.50 -67.60,207.53 -72.26,207.87 -76.63,208.90 -82.36,211.02"/>
        <lane id=":J19_0_1" index="1" disallow="pedestrian tram rail_urban rail rail_electric rail_fast ship" speed="13.89" length="22.82" width="5.00" shape="-61.00,202.50 -68.29,202.58 -73.54,203.05 -78.33,204.21 -84.21,206.38"/>
    </edge>
    <edge id=":J19_2" function="internal">
        <lane id=":J19_2_0" index="0" disallow="pedestrian tram rail_urban rail rail_electric rail_fast ship" speed="10.89" length="8.02" width="5.00" shape="-61.00,202.50 -68.22,201.47 -68.84,201.09"/>
    </edge>
    <edge id=":J19_8" function="internal">
        <lane id=":J19_8_0" index="0" disallow="pedestrian tram rail_urban rail rail_electric rail_fast ship" speed="10.89" length="18.59" width="5.00" shape="-68.84,201.09 -73.38,198.38 -76.47,193.22 -77.50,186.00"/>
    </edge>
    <edge id=":J19_3" function="internal">
        <lane id=":J19_3_0" index="0" disallow="pedestrian tram rail_urban rail rail_electric rail_fast ship" speed="7.14" length="6.26" width="5.00" shape="-67.50,186.00 -67.09,188.84 -65.88,190.88 -65.00,191.40"/>
    </edge>
    <edge id=":J19_4" function="internal">
        <lane id=":J19_4_0" index="0" disallow="pedestrian tram rail_urban rail rail_electric rail_fast ship" speed="12.46" length="25.06" width="5.00" shape="-72.50,186.00 -73.23,193.16 -75.43,198.94 -79.09,203.35 -84.21,206.38"/>
    </edge>
    <edge id=":J19_9" function="internal">
        <lane id=":J19_9_0" index="0" disallow="pedestrian tram rail_urban rail rail_electric rail_fast ship" speed="7.14" length="4.22" width="5.00" shape="-65.00,191.40 -63.84,192.09 -61.00,192.50"/>
    </edge>
    <edge id=":J19_5" function="internal">
        <lane id=":J19_5_0" index="0" disallow="pedestrian tram rail_urban rail rail_electric rail_fast ship" speed="9.20" length="9.07" width="5.00" shape="-87.93,197.09 -85.55,195.59 -83.86,193.23 -82.84,190.04"/>
    </edge>
    <edge id=":J19_6" function="internal">
        <lane id=":J19_6_0" index="0" disallow="pedestrian tram rail_urban rail rail_electric rail_fast ship" speed="13.89" length="26.60" width="5.00" shape="-87.93,197.09 -81.72,194.81 -76.10,193.40 -69.66,192.70 -61.00,192.50"/>
        <lane id=":J19_6_1" index="1" disallow="pedestrian tram rail_urban rail rail_electric rail_fast ship" speed="13.89" length="26.60" width="5.00" shape="-86.07,201.74 -80.02,199.51 -74.82,198.23 -68.98,197.64 -61.00,197.50"/>
    </edge>
    <edge id=":J19_10" function="internal">
        <lane id=":J19_10_0" index="0" disallow="pedestrian tram rail_urban rail rail_electric rail_fast ship" speed="9.20" length="4.05" width="5.00" shape="-82.84,190.04 -82.50,186.00"/>
    </edge>
    <edge id=":J19_c0" function="crossing" crossingEdges="E5 -E5">
        <lane id=":J19_c0_0" index="0" allow="pedestrian" speed="2.78" length="20.00" width="4.00" shape="-63.00,190.00 -63.00,210.00"/>
    </edge>
    <edge id=":J19_c1" function="crossing" crossingEdges="-E31 E31">
        <lane id=":J19_c1_0" index="0" allow="pedestrian" speed="2.78" length="20.00" width="4.00" shape="-85.00,188.00 -65.00,188.00"/>
    </edge>
    <edge id=":J19_w0" function="walkingarea">
        <lane id=":J19_w0_0" index="0" allow="pedestrian" speed="2.78" length="2.24" width="4.00" shape="-61.00,212.00 -61.00,210.00 -65.44,209.98 -68.76,210.01 -71.49,210.23 -74.16,210.77 -77.30,211.76"/>
    </edge>
    <edge id=":J19_w1" function="walkingarea">
        <lane id=":J19_w1_0" index="0" allow="pedestrian" speed="2.78" length="3.30" width="4.00" shape="-61.00,190.00 -61.00,188.00 -63.00,186.00 -65.00,186.00 -64.89,187.22 -64.56,188.22 -64.00,189.00 -63.22,189.56 -62.22,189.89"/>
    </edge>
    <edge id=":J19_w2" function="walkingarea">
        <lane id=":J19_w2_0" index="0" allow="pedestrian" speed="2.78" length="2.24" width="4.00" shape="-85.00,186.00 -87.00,186.00 -87.68,194.10 -86.71,193.11 -85.96,191.81 -85.43,190.19 -85.11,188.25"/>
    </edge>
    <edge id=":J2_w0" function="walkingarea">
        <lane id=":J2_w0_0" index="0" allow="pedestrian" speed="2.78" length="22.00" width="2.00" shape="-40.00,-150.00 -38.00,-150.00 -62.00,-150.00 -60.00,-150.00"/>
    </edge>
    <edge id=":J21_w0" function="walkingarea">
        <lane id=":J21_w0_0" index="0" allow="pedestrian" speed="2.78" length="22.00" width="2.00" shape="407.25,60.23 407.24,62.23 407.30,38.23 407.29,40.23"/>
    </edge>
    <edge id=":J3_0" function="internal">
        <lane id=":J3_0_0" index="0" disallow="pedestrian" speed="13.89" length="9.68" width="5.00" shape="8.44,57.50 -1.24,57.50"/>
        <lane id=":J3_0_1" index="1" disallow="pedestrian" speed="13.89" length="9.68" width="5.00" shape="8.44,52.50 -1.24,52.50"/>
    </edge>
    <edge id=":J3_2" function="internal">
        <lane id=":J3_2_0" index="0" disallow="pedestrian" speed="13.89" length="9.68" width="5.00" shape="-1.24,42.50 8.44,42.50"/>
        <lane id=":J3_2_1" index="1" disallow="pedestrian" speed="13.89" length="9.68" width="5.00" shape="-1.24,47.50 8.44,47.50"/>
    </edge>
    <edge id=":J3_c0" function="crossing" crossingEdges="-E4 E4">
        <lane id=":J3_c0_0" index="0" allow="pedestrian" speed="2.78" length="20.00" width="9.60" shape="3.64,40.00 3.64,60.00"/>
    </edge>
    <edge id=":J3_w0" function="walkingarea">
        <lane id=":J3_w0_0" index="0" allow="pedestrian" speed="2.78" length="5.61" width="9.60" shape="-1.24,60.00 -1.24,62.00 1.24,65.28 4.31,64.36 7.37,63.44 8.44,62.00 8.44,60.00 -1.16,60.00"/>
    </edge>
    <edge id=":J3_w1" function="walkingarea">
        <lane id=":J3_w1_0" index="0" allow="pedestrian" speed="2.78" length="6.52" width="9.60" shape="-1.16,40.00 8.44,40.00 8.44,38.00 -1.24,38.00 -1.24,40.00"/>
    </edge>
    <edge id=":J4_0" function="internal">
        <lane id=":J4_0_0" index="0" disallow="pedestrian" speed="13.89" length="9.69" width="5.00" shape="46.24,207.50 36.56,207.50"/>
        <lane id=":J4_0_1" index="1" disallow="pedestrian" speed="13.89" length="9.69" width="5.00" shape="46.24,202.50 36.56,202.50"/>
    </edge>
    <edge id=":J4_2" function="internal">
        <lane id=":J4_2_0" index="0" disallow="pedestrian" speed="13.89" length="9.69" width="5.00" shape="36.56,192.50 46.24,192.50"/>
        <lane id=":J4_2_1" index="1" disallow="pedestrian" speed="13.89" length="9.69" width="5.00" shape="36.56,197.50 46.24,197.50"/>
    </edge>
    <edge id=":J4_c0" function="crossing" crossingEdges="-E6 E6">
        <lane id=":J4_c0_0" index="0" allow="pedestrian" speed="2.78" length="20.00" width="9.60" shape="41.44,190.00 41.44,210.00"/>
    </edge>
    <edge id=":J4_w0" function="walkingarea">
        <lane id=":J4_w0_0" index="0" allow="pedestrian" speed="2.78" length="6.53" width="9.60" shape="36.56,210.00 36.56,212.00 46.24,212.00 46.24,210.00 36.64,210.00"/>
    </edge>
    <edge id=":J4_w1" function="walkingarea">
        <lane id=":J4_w1_0" index="0" allow="pedestrian" speed="2.78" length="5.61" width="9.60" shape="36.64,190.00 46.24,190.00 46.24,188.00 43.76,184.72 40.69,185.64 37.62,186.56 36.56,188.00 36.56,190.00"/>
    </edge>
    <edge id=":J54_0" function="internal">
        <lane id=":J54_0_0" index="0" disallow="pedestrian tram rail_urban rail rail_electric rail_fast ship" speed="7.14" length="6.26" width="5.00" shape="-82.50,64.00 -82.91,61.16 -84.12,59.12 -85.00,58.60"/>
        <lane id=":J54_0_1" index="1" disallow="pedestrian tram rail_urban rail rail_electric rail_fast ship" speed="9.21" length="14.51" width="5.00" shape="-77.50,64.00 -78.22,58.97 -80.38,55.38 -83.97,53.22 -85.00,53.07"/>
    </edge>
    <edge id=":J54_2" function="internal">
        <lane id=":J54_2_0" index="0" disallow="pedestrian tram rail_urban rail rail_electric rail_fast ship" speed="10.89" length="22.57" width="5.00" shape="-77.50,64.00 -76.47,56.78 -73.38,51.62 -68.22,48.53 -65.00,48.07"/>
    </edge>
    <edge id=":J54_9" function="internal">
        <lane id=":J54_9_0" index="0" disallow="pedestrian tram rail_urban rail rail_electric rail_fast ship" speed="7.14" length="4.22" width="5.00" shape="-85.00,58.60 -86.16,57.91 -89.00,57.50"/>
    </edge>
    <edge id=":J54_10" function="internal">
        <lane id=":J54_10_0" index="0" disallow="pedestrian tram rail_urban rail rail_electric rail_fast ship" speed="9.21" length="4.04" width="5.00" shape="-85.00,53.07 -89.00,52.50"/>
    </edge>
    <edge id=":J54_11" function="internal">
        <lane id=":J54_11_0" index="0" disallow="pedestrian tram rail_urban rail rail_electric rail_fast ship" speed="10.89" length="4.04" width="5.00" shape="-65.00,48.07 -61.00,47.50"/>
    </edge>
    <edge id=":J54_3" function="internal">
        <lane id=":J54_3_0" index="0" disallow="pedestrian tram rail_urban rail rail_electric rail_fast ship" speed="7.14" length="6.26" width="5.00" shape="-61.00,57.50 -63.84,57.91 -65.88,59.12 -66.40,60.00"/>
    </edge>
    <edge id=":J54_4" function="internal">
        <lane id=":J54_4_0" index="0" disallow="pedestrian tram rail_urban rail rail_electric rail_fast ship" speed="13.89" length="28.00" width="5.00" shape="-61.00,57.50 -89.00,57.50"/>